
1676 atoms 
       
2 atom types

0 50 xlo xhi
0 50 ylo yhi
0 50 zlo zhi

Masses

1 2
2 3

Atoms

1 1 30 0 12 
2 1 39 0 12 
3 1 66 0 12 
4 1 138 0 12 
5 1 12 3 12 
6 1 69 3 12 
7 1 78 3 12 
8 1 9 6 12 
9 1 21 6 12 
10 1 90 6 12 
11 1 93 6 12 
12 1 96 6 12 
13 1 12 9 12 
14 1 129 9 12 
15 1 63 12 12 
16 1 69 12 12 
17 1 81 12 12 
18 1 90 12 12 
19 1 51 15 12 
20 1 141 21 12 
21 1 144 21 12 
22 1 45 27 12 
23 1 36 30 12 
24 1 48 30 12 
25 1 123 30 12 
26 1 147 30 12 
27 1 135 33 12 
28 1 72 36 12 
29 1 75 36 12 
30 1 30 39 12 
31 1 72 39 12 
32 1 117 42 12 
33 1 15 45 12 
34 1 96 45 12 
35 1 36 48 12 
36 1 114 48 12 
37 1 141 48 12 
38 1 81 54 12 
39 1 144 54 12 
40 1 3 57 12 
41 1 6 57 12 
42 1 21 57 12 
43 2 21 66 12 
44 1 33 66 12 
45 1 36 66 12 
46 1 48 66 12 
47 1 63 69 12 
48 1 87 69 12 
49 1 57 72 12 
50 2 90 72 12 
51 1 87 75 12 
52 1 84 78 12 
53 1 120 81 12 
54 1 30 84 12 
55 1 120 84 12 
56 1 126 84 12 
57 1 135 84 12 
58 1 144 84 12 
59 1 69 87 12 
60 1 129 90 12 
61 1 36 93 12 
62 1 66 93 12 
63 1 105 93 12 
64 1 45 99 12 
65 1 78 102 12 
66 1 57 105 12 
67 1 72 108 12 
68 1 84 108 12 
69 2 120 108 12 
70 1 6 111 12 
71 1 48 111 12 
72 1 69 111 12 
73 1 87 111 12 
74 1 102 111 12 
75 1 15 114 12 
76 1 27 114 12 
77 1 66 117 12 
78 1 108 117 12 
79 1 63 120 12 
80 1 99 120 12 
81 1 30 123 12 
82 1 81 126 12 
83 1 18 129 12 
84 1 0 132 12 
85 1 33 132 12 
86 1 129 135 12 
87 1 3 138 12 
88 1 78 138 12 
89 1 90 138 12 
90 1 135 138 12 
91 1 33 141 12 
92 1 93 141 12 
93 1 123 141 12 
94 1 54 144 12 
95 1 90 144 12 
96 1 132 144 12 
97 1 27 147 12 
98 1 42 147 12 
99 1 0 0 15 
100 1 6 0 15 
101 1 9 0 15 
102 1 15 0 15 
103 1 18 0 15 
104 1 21 0 15 
105 1 24 0 15 
106 1 30 0 15 
107 1 33 0 15 
108 1 42 0 15 
109 1 45 0 15 
110 1 51 0 15 
111 1 54 0 15 
112 1 60 0 15 
113 1 66 0 15 
114 1 81 0 15 
115 1 84 0 15 
116 1 90 0 15 
117 1 93 0 15 
118 1 99 0 15 
119 1 102 0 15 
120 1 105 0 15 
121 1 108 0 15 
122 2 111 0 15 
123 1 117 0 15 
124 1 120 0 15 
125 1 123 0 15 
126 1 126 0 15 
127 1 129 0 15 
128 1 132 0 15 
129 1 135 0 15 
130 1 138 0 15 
131 1 0 3 15 
132 1 3 3 15 
133 1 6 3 15 
134 1 9 3 15 
135 1 15 3 15 
136 1 18 3 15 
137 1 21 3 15 
138 1 24 3 15 
139 1 27 3 15 
140 1 33 3 15 
141 1 39 3 15 
142 1 51 3 15 
143 1 54 3 15 
144 1 57 3 15 
145 1 60 3 15 
146 1 63 3 15 
147 1 66 3 15 
148 1 75 3 15 
149 1 78 3 15 
150 1 81 3 15 
151 1 84 3 15 
152 1 87 3 15 
153 1 93 3 15 
154 2 96 3 15 
155 1 102 3 15 
156 1 105 3 15 
157 1 108 3 15 
158 1 114 3 15 
159 1 117 3 15 
160 1 120 3 15 
161 1 123 3 15 
162 1 129 3 15 
163 1 138 3 15 
164 1 141 3 15 
165 1 144 3 15 
166 1 147 3 15 
167 1 0 6 15 
168 1 18 6 15 
169 1 21 6 15 
170 1 30 6 15 
171 1 33 6 15 
172 1 39 6 15 
173 1 42 6 15 
174 1 45 6 15 
175 1 48 6 15 
176 1 51 6 15 
177 1 54 6 15 
178 1 57 6 15 
179 1 60 6 15 
180 1 63 6 15 
181 1 69 6 15 
182 1 72 6 15 
183 1 75 6 15 
184 1 78 6 15 
185 1 84 6 15 
186 1 93 6 15 
187 1 102 6 15 
188 1 105 6 15 
189 1 108 6 15 
190 1 114 6 15 
191 1 117 6 15 
192 1 120 6 15 
193 2 129 6 15 
194 1 132 6 15 
195 1 138 6 15 
196 1 141 6 15 
197 2 144 6 15 
198 1 147 6 15 
199 1 0 9 15 
200 1 3 9 15 
201 1 6 9 15 
202 1 9 9 15 
203 1 12 9 15 
204 1 21 9 15 
205 1 27 9 15 
206 1 30 9 15 
207 1 36 9 15 
208 1 39 9 15 
209 1 45 9 15 
210 1 51 9 15 
211 1 54 9 15 
212 1 60 9 15 
213 1 72 9 15 
214 1 75 9 15 
215 1 78 9 15 
216 1 81 9 15 
217 1 84 9 15 
218 1 87 9 15 
219 1 90 9 15 
220 1 102 9 15 
221 1 108 9 15 
222 1 114 9 15 
223 1 117 9 15 
224 1 126 9 15 
225 1 132 9 15 
226 1 138 9 15 
227 1 141 9 15 
228 1 144 9 15 
229 1 147 9 15 
230 1 0 12 15 
231 1 3 12 15 
232 1 6 12 15 
233 1 9 12 15 
234 1 15 12 15 
235 1 18 12 15 
236 1 21 12 15 
237 1 24 12 15 
238 1 27 12 15 
239 1 30 12 15 
240 1 36 12 15 
241 1 39 12 15 
242 1 42 12 15 
243 1 45 12 15 
244 1 48 12 15 
245 1 54 12 15 
246 1 57 12 15 
247 1 63 12 15 
248 1 66 12 15 
249 1 69 12 15 
250 1 75 12 15 
251 1 78 12 15 
252 1 81 12 15 
253 1 90 12 15 
254 1 96 12 15 
255 1 99 12 15 
256 1 102 12 15 
257 1 105 12 15 
258 1 123 12 15 
259 1 126 12 15 
260 1 129 12 15 
261 1 132 12 15 
262 1 135 12 15 
263 1 138 12 15 
264 1 141 12 15 
265 1 144 12 15 
266 2 147 12 15 
267 1 0 15 15 
268 1 9 15 15 
269 2 12 15 15 
270 1 21 15 15 
271 1 27 15 15 
272 1 30 15 15 
273 1 36 15 15 
274 1 39 15 15 
275 1 45 15 15 
276 1 48 15 15 
277 1 51 15 15 
278 1 54 15 15 
279 1 57 15 15 
280 1 60 15 15 
281 1 66 15 15 
282 1 69 15 15 
283 1 78 15 15 
284 1 81 15 15 
285 1 84 15 15 
286 1 87 15 15 
287 1 90 15 15 
288 1 93 15 15 
289 1 96 15 15 
290 1 102 15 15 
291 1 105 15 15 
292 1 111 15 15 
293 1 120 15 15 
294 1 123 15 15 
295 1 126 15 15 
296 1 129 15 15 
297 1 132 15 15 
298 1 135 15 15 
299 1 141 15 15 
300 1 144 15 15 
301 1 147 15 15 
302 1 0 18 15 
303 1 3 18 15 
304 1 6 18 15 
305 1 9 18 15 
306 1 12 18 15 
307 1 15 18 15 
308 1 21 18 15 
309 1 24 18 15 
310 1 27 18 15 
311 1 30 18 15 
312 1 36 18 15 
313 1 39 18 15 
314 1 48 18 15 
315 1 51 18 15 
316 1 57 18 15 
317 1 69 18 15 
318 1 72 18 15 
319 1 75 18 15 
320 1 78 18 15 
321 1 81 18 15 
322 1 90 18 15 
323 1 93 18 15 
324 1 96 18 15 
325 1 99 18 15 
326 1 108 18 15 
327 1 117 18 15 
328 1 120 18 15 
329 1 123 18 15 
330 1 126 18 15 
331 1 129 18 15 
332 1 132 18 15 
333 1 135 18 15 
334 1 138 18 15 
335 1 147 18 15 
336 1 6 21 15 
337 1 9 21 15 
338 1 12 21 15 
339 1 15 21 15 
340 1 18 21 15 
341 1 21 21 15 
342 1 27 21 15 
343 1 33 21 15 
344 1 39 21 15 
345 1 48 21 15 
346 1 51 21 15 
347 1 63 21 15 
348 1 66 21 15 
349 1 69 21 15 
350 1 72 21 15 
351 1 75 21 15 
352 1 78 21 15 
353 1 81 21 15 
354 1 84 21 15 
355 1 87 21 15 
356 1 90 21 15 
357 1 96 21 15 
358 1 99 21 15 
359 2 102 21 15 
360 1 117 21 15 
361 1 120 21 15 
362 1 123 21 15 
363 1 126 21 15 
364 1 129 21 15 
365 1 132 21 15 
366 1 138 21 15 
367 1 144 21 15 
368 1 0 24 15 
369 1 6 24 15 
370 1 12 24 15 
371 1 15 24 15 
372 2 21 24 15 
373 1 24 24 15 
374 1 27 24 15 
375 1 30 24 15 
376 1 33 24 15 
377 1 42 24 15 
378 1 51 24 15 
379 1 54 24 15 
380 1 63 24 15 
381 1 66 24 15 
382 1 72 24 15 
383 1 78 24 15 
384 1 93 24 15 
385 1 96 24 15 
386 1 99 24 15 
387 1 105 24 15 
388 1 108 24 15 
389 1 111 24 15 
390 1 114 24 15 
391 1 117 24 15 
392 1 120 24 15 
393 1 126 24 15 
394 1 132 24 15 
395 1 138 24 15 
396 1 3 27 15 
397 1 6 27 15 
398 1 9 27 15 
399 1 12 27 15 
400 1 18 27 15 
401 1 24 27 15 
402 1 30 27 15 
403 1 33 27 15 
404 1 36 27 15 
405 1 42 27 15 
406 1 45 27 15 
407 1 48 27 15 
408 1 51 27 15 
409 1 54 27 15 
410 1 57 27 15 
411 1 60 27 15 
412 1 63 27 15 
413 1 66 27 15 
414 1 72 27 15 
415 1 78 27 15 
416 1 81 27 15 
417 1 84 27 15 
418 1 87 27 15 
419 1 90 27 15 
420 1 93 27 15 
421 1 102 27 15 
422 1 105 27 15 
423 1 108 27 15 
424 1 111 27 15 
425 1 114 27 15 
426 1 117 27 15 
427 1 126 27 15 
428 1 132 27 15 
429 1 135 27 15 
430 1 138 27 15 
431 1 144 27 15 
432 1 147 27 15 
433 1 3 30 15 
434 1 6 30 15 
435 1 9 30 15 
436 1 12 30 15 
437 1 15 30 15 
438 1 24 30 15 
439 1 27 30 15 
440 1 30 30 15 
441 1 36 30 15 
442 1 42 30 15 
443 1 45 30 15 
444 1 51 30 15 
445 1 54 30 15 
446 1 60 30 15 
447 1 66 30 15 
448 1 69 30 15 
449 1 72 30 15 
450 1 81 30 15 
451 1 84 30 15 
452 1 87 30 15 
453 1 93 30 15 
454 1 96 30 15 
455 1 99 30 15 
456 1 105 30 15 
457 1 108 30 15 
458 1 111 30 15 
459 1 123 30 15 
460 2 126 30 15 
461 1 129 30 15 
462 1 132 30 15 
463 1 141 30 15 
464 1 144 30 15 
465 1 147 30 15 
466 1 3 33 15 
467 1 6 33 15 
468 1 9 33 15 
469 1 12 33 15 
470 1 15 33 15 
471 1 18 33 15 
472 1 27 33 15 
473 1 30 33 15 
474 1 33 33 15 
475 1 36 33 15 
476 1 42 33 15 
477 1 45 33 15 
478 1 51 33 15 
479 1 54 33 15 
480 1 57 33 15 
481 1 60 33 15 
482 1 69 33 15 
483 1 87 33 15 
484 1 90 33 15 
485 1 96 33 15 
486 1 105 33 15 
487 1 117 33 15 
488 1 126 33 15 
489 1 144 33 15 
490 1 0 36 15 
491 1 3 36 15 
492 1 18 36 15 
493 1 27 36 15 
494 1 30 36 15 
495 1 36 36 15 
496 1 39 36 15 
497 1 48 36 15 
498 1 51 36 15 
499 1 54 36 15 
500 1 66 36 15 
501 1 72 36 15 
502 1 78 36 15 
503 1 81 36 15 
504 1 84 36 15 
505 1 90 36 15 
506 1 93 36 15 
507 1 96 36 15 
508 1 108 36 15 
509 1 117 36 15 
510 1 129 36 15 
511 2 135 36 15 
512 1 138 36 15 
513 1 144 36 15 
514 1 147 36 15 
515 1 0 39 15 
516 1 3 39 15 
517 1 6 39 15 
518 1 9 39 15 
519 1 15 39 15 
520 1 18 39 15 
521 1 21 39 15 
522 1 24 39 15 
523 1 27 39 15 
524 1 39 39 15 
525 1 42 39 15 
526 1 45 39 15 
527 1 48 39 15 
528 1 51 39 15 
529 1 54 39 15 
530 1 60 39 15 
531 1 66 39 15 
532 1 72 39 15 
533 1 81 39 15 
534 1 84 39 15 
535 1 96 39 15 
536 1 102 39 15 
537 1 105 39 15 
538 1 108 39 15 
539 1 111 39 15 
540 1 117 39 15 
541 1 123 39 15 
542 1 126 39 15 
543 1 132 39 15 
544 1 138 39 15 
545 1 141 39 15 
546 1 144 39 15 
547 2 0 42 15 
548 1 3 42 15 
549 1 6 42 15 
550 1 15 42 15 
551 1 24 42 15 
552 1 27 42 15 
553 1 36 42 15 
554 1 39 42 15 
555 1 48 42 15 
556 1 54 42 15 
557 1 60 42 15 
558 1 63 42 15 
559 1 66 42 15 
560 1 69 42 15 
561 1 81 42 15 
562 1 84 42 15 
563 1 90 42 15 
564 1 102 42 15 
565 1 108 42 15 
566 1 111 42 15 
567 1 114 42 15 
568 1 123 42 15 
569 1 126 42 15 
570 1 129 42 15 
571 1 132 42 15 
572 1 138 42 15 
573 1 141 42 15 
574 1 144 42 15 
575 1 147 42 15 
576 1 0 45 15 
577 1 3 45 15 
578 1 9 45 15 
579 1 12 45 15 
580 1 21 45 15 
581 1 36 45 15 
582 1 39 45 15 
583 1 42 45 15 
584 1 45 45 15 
585 1 48 45 15 
586 1 54 45 15 
587 1 63 45 15 
588 1 72 45 15 
589 1 75 45 15 
590 1 78 45 15 
591 1 81 45 15 
592 1 84 45 15 
593 1 87 45 15 
594 1 99 45 15 
595 1 108 45 15 
596 1 111 45 15 
597 1 117 45 15 
598 1 123 45 15 
599 1 126 45 15 
600 1 132 45 15 
601 1 138 45 15 
602 1 144 45 15 
603 1 6 48 15 
604 1 9 48 15 
605 1 12 48 15 
606 1 15 48 15 
607 1 24 48 15 
608 2 30 48 15 
609 1 33 48 15 
610 1 42 48 15 
611 1 45 48 15 
612 1 48 48 15 
613 1 51 48 15 
614 1 57 48 15 
615 1 60 48 15 
616 1 66 48 15 
617 1 75 48 15 
618 1 78 48 15 
619 1 81 48 15 
620 1 87 48 15 
621 1 93 48 15 
622 1 96 48 15 
623 1 102 48 15 
624 1 105 48 15 
625 1 114 48 15 
626 1 123 48 15 
627 1 126 48 15 
628 1 129 48 15 
629 1 132 48 15 
630 1 0 51 15 
631 1 6 51 15 
632 2 9 51 15 
633 1 18 51 15 
634 1 21 51 15 
635 1 27 51 15 
636 1 30 51 15 
637 1 33 51 15 
638 1 36 51 15 
639 1 39 51 15 
640 1 42 51 15 
641 1 45 51 15 
642 1 54 51 15 
643 1 60 51 15 
644 1 66 51 15 
645 1 69 51 15 
646 1 75 51 15 
647 1 81 51 15 
648 1 96 51 15 
649 1 102 51 15 
650 1 105 51 15 
651 1 114 51 15 
652 1 117 51 15 
653 1 123 51 15 
654 1 126 51 15 
655 2 129 51 15 
656 1 135 51 15 
657 1 138 51 15 
658 1 141 51 15 
659 1 147 51 15 
660 1 3 54 15 
661 1 12 54 15 
662 1 18 54 15 
663 1 30 54 15 
664 1 33 54 15 
665 1 36 54 15 
666 1 42 54 15 
667 1 45 54 15 
668 1 51 54 15 
669 1 54 54 15 
670 1 57 54 15 
671 1 60 54 15 
672 1 66 54 15 
673 1 69 54 15 
674 1 72 54 15 
675 1 75 54 15 
676 1 78 54 15 
677 1 81 54 15 
678 1 84 54 15 
679 1 87 54 15 
680 1 93 54 15 
681 1 99 54 15 
682 1 102 54 15 
683 1 108 54 15 
684 1 111 54 15 
685 1 114 54 15 
686 1 120 54 15 
687 1 123 54 15 
688 1 126 54 15 
689 1 129 54 15 
690 1 132 54 15 
691 1 135 54 15 
692 1 141 54 15 
693 1 144 54 15 
694 1 0 57 15 
695 1 9 57 15 
696 1 15 57 15 
697 1 21 57 15 
698 1 24 57 15 
699 1 27 57 15 
700 1 30 57 15 
701 2 33 57 15 
702 1 39 57 15 
703 1 42 57 15 
704 1 45 57 15 
705 1 48 57 15 
706 2 51 57 15 
707 1 54 57 15 
708 1 57 57 15 
709 1 60 57 15 
710 1 69 57 15 
711 1 72 57 15 
712 1 90 57 15 
713 1 93 57 15 
714 1 96 57 15 
715 1 102 57 15 
716 1 105 57 15 
717 1 108 57 15 
718 1 111 57 15 
719 1 114 57 15 
720 1 117 57 15 
721 1 120 57 15 
722 1 126 57 15 
723 1 129 57 15 
724 1 135 57 15 
725 1 138 57 15 
726 1 141 57 15 
727 1 144 57 15 
728 1 147 57 15 
729 1 0 60 15 
730 1 3 60 15 
731 1 12 60 15 
732 1 15 60 15 
733 1 21 60 15 
734 1 27 60 15 
735 1 33 60 15 
736 1 39 60 15 
737 1 45 60 15 
738 1 48 60 15 
739 1 51 60 15 
740 1 57 60 15 
741 1 60 60 15 
742 1 63 60 15 
743 1 66 60 15 
744 1 69 60 15 
745 1 72 60 15 
746 1 75 60 15 
747 1 84 60 15 
748 1 87 60 15 
749 1 90 60 15 
750 1 96 60 15 
751 1 99 60 15 
752 1 114 60 15 
753 1 117 60 15 
754 1 120 60 15 
755 1 123 60 15 
756 1 129 60 15 
757 1 132 60 15 
758 1 135 60 15 
759 1 138 60 15 
760 1 141 60 15 
761 1 144 60 15 
762 1 0 63 15 
763 1 3 63 15 
764 1 6 63 15 
765 1 9 63 15 
766 1 12 63 15 
767 1 15 63 15 
768 1 18 63 15 
769 1 24 63 15 
770 1 27 63 15 
771 1 33 63 15 
772 1 39 63 15 
773 1 42 63 15 
774 1 45 63 15 
775 1 48 63 15 
776 1 51 63 15 
777 1 57 63 15 
778 1 60 63 15 
779 1 63 63 15 
780 1 75 63 15 
781 1 78 63 15 
782 2 81 63 15 
783 1 102 63 15 
784 1 105 63 15 
785 1 108 63 15 
786 1 114 63 15 
787 1 117 63 15 
788 1 120 63 15 
789 1 123 63 15 
790 1 129 63 15 
791 1 132 63 15 
792 1 135 63 15 
793 1 138 63 15 
794 1 144 63 15 
795 1 147 63 15 
796 1 3 66 15 
797 1 6 66 15 
798 1 12 66 15 
799 1 18 66 15 
800 1 21 66 15 
801 1 27 66 15 
802 1 33 66 15 
803 1 39 66 15 
804 1 42 66 15 
805 1 48 66 15 
806 1 54 66 15 
807 1 63 66 15 
808 1 69 66 15 
809 1 72 66 15 
810 2 75 66 15 
811 1 81 66 15 
812 1 84 66 15 
813 1 87 66 15 
814 1 93 66 15 
815 1 105 66 15 
816 1 108 66 15 
817 1 114 66 15 
818 1 117 66 15 
819 1 123 66 15 
820 1 126 66 15 
821 1 138 66 15 
822 1 141 66 15 
823 1 144 66 15 
824 1 0 69 15 
825 1 3 69 15 
826 1 9 69 15 
827 1 12 69 15 
828 1 15 69 15 
829 1 24 69 15 
830 1 30 69 15 
831 1 33 69 15 
832 1 42 69 15 
833 1 57 69 15 
834 1 60 69 15 
835 1 63 69 15 
836 1 84 69 15 
837 1 90 69 15 
838 1 93 69 15 
839 1 96 69 15 
840 1 99 69 15 
841 1 108 69 15 
842 1 111 69 15 
843 1 120 69 15 
844 1 123 69 15 
845 1 126 69 15 
846 1 129 69 15 
847 1 132 69 15 
848 1 135 69 15 
849 1 138 69 15 
850 1 147 69 15 
851 2 0 72 15 
852 1 3 72 15 
853 1 9 72 15 
854 1 12 72 15 
855 1 18 72 15 
856 1 39 72 15 
857 1 42 72 15 
858 1 45 72 15 
859 1 48 72 15 
860 1 54 72 15 
861 1 60 72 15 
862 1 63 72 15 
863 1 66 72 15 
864 1 75 72 15 
865 1 78 72 15 
866 1 87 72 15 
867 1 96 72 15 
868 2 102 72 15 
869 1 105 72 15 
870 1 108 72 15 
871 1 114 72 15 
872 1 117 72 15 
873 1 123 72 15 
874 1 126 72 15 
875 1 135 72 15 
876 1 138 72 15 
877 1 141 72 15 
878 1 6 75 15 
879 1 9 75 15 
880 1 18 75 15 
881 1 21 75 15 
882 1 30 75 15 
883 1 33 75 15 
884 1 39 75 15 
885 1 45 75 15 
886 1 48 75 15 
887 1 54 75 15 
888 1 66 75 15 
889 1 69 75 15 
890 1 72 75 15 
891 1 84 75 15 
892 1 108 75 15 
893 1 111 75 15 
894 1 117 75 15 
895 1 120 75 15 
896 1 123 75 15 
897 1 126 75 15 
898 1 129 75 15 
899 1 138 75 15 
900 1 141 75 15 
901 1 144 75 15 
902 1 0 78 15 
903 1 6 78 15 
904 1 9 78 15 
905 1 12 78 15 
906 1 18 78 15 
907 1 33 78 15 
908 1 39 78 15 
909 1 42 78 15 
910 1 48 78 15 
911 1 51 78 15 
912 1 54 78 15 
913 1 63 78 15 
914 1 66 78 15 
915 1 69 78 15 
916 2 72 78 15 
917 1 78 78 15 
918 1 81 78 15 
919 1 87 78 15 
920 1 93 78 15 
921 1 96 78 15 
922 1 102 78 15 
923 1 120 78 15 
924 1 123 78 15 
925 1 126 78 15 
926 1 129 78 15 
927 2 132 78 15 
928 1 138 78 15 
929 1 141 78 15 
930 1 144 78 15 
931 1 147 78 15 
932 1 3 81 15 
933 1 9 81 15 
934 1 15 81 15 
935 1 18 81 15 
936 1 21 81 15 
937 1 27 81 15 
938 1 33 81 15 
939 1 48 81 15 
940 1 54 81 15 
941 1 57 81 15 
942 1 60 81 15 
943 1 63 81 15 
944 1 66 81 15 
945 1 69 81 15 
946 1 72 81 15 
947 1 75 81 15 
948 1 81 81 15 
949 1 84 81 15 
950 1 90 81 15 
951 1 93 81 15 
952 1 96 81 15 
953 1 99 81 15 
954 1 102 81 15 
955 1 108 81 15 
956 1 111 81 15 
957 1 114 81 15 
958 1 126 81 15 
959 1 129 81 15 
960 1 132 81 15 
961 1 138 81 15 
962 1 141 81 15 
963 1 0 84 15 
964 1 3 84 15 
965 1 6 84 15 
966 1 9 84 15 
967 1 12 84 15 
968 1 18 84 15 
969 1 21 84 15 
970 1 24 84 15 
971 1 27 84 15 
972 1 30 84 15 
973 1 39 84 15 
974 1 42 84 15 
975 1 51 84 15 
976 1 57 84 15 
977 1 60 84 15 
978 1 69 84 15 
979 1 75 84 15 
980 1 78 84 15 
981 1 81 84 15 
982 1 90 84 15 
983 1 93 84 15 
984 1 99 84 15 
985 1 102 84 15 
986 1 111 84 15 
987 1 0 87 15 
988 1 3 87 15 
989 1 9 87 15 
990 1 12 87 15 
991 1 15 87 15 
992 1 18 87 15 
993 2 21 87 15 
994 1 33 87 15 
995 1 36 87 15 
996 1 39 87 15 
997 1 45 87 15 
998 1 48 87 15 
999 1 51 87 15 
1000 1 54 87 15 
1001 1 63 87 15 
1002 1 66 87 15 
1003 1 69 87 15 
1004 1 72 87 15 
1005 1 81 87 15 
1006 1 84 87 15 
1007 1 90 87 15 
1008 1 93 87 15 
1009 1 96 87 15 
1010 1 99 87 15 
1011 1 105 87 15 
1012 1 108 87 15 
1013 1 111 87 15 
1014 1 114 87 15 
1015 1 117 87 15 
1016 1 120 87 15 
1017 1 129 87 15 
1018 1 135 87 15 
1019 1 138 87 15 
1020 1 141 87 15 
1021 1 144 87 15 
1022 1 147 87 15 
1023 1 0 90 15 
1024 1 3 90 15 
1025 1 9 90 15 
1026 1 12 90 15 
1027 1 15 90 15 
1028 1 21 90 15 
1029 1 27 90 15 
1030 1 30 90 15 
1031 1 33 90 15 
1032 1 42 90 15 
1033 1 45 90 15 
1034 1 48 90 15 
1035 1 51 90 15 
1036 1 54 90 15 
1037 1 60 90 15 
1038 1 63 90 15 
1039 1 75 90 15 
1040 1 78 90 15 
1041 1 81 90 15 
1042 1 84 90 15 
1043 1 87 90 15 
1044 1 90 90 15 
1045 1 96 90 15 
1046 1 108 90 15 
1047 1 111 90 15 
1048 1 114 90 15 
1049 1 117 90 15 
1050 1 120 90 15 
1051 1 123 90 15 
1052 1 126 90 15 
1053 1 129 90 15 
1054 1 138 90 15 
1055 1 141 90 15 
1056 1 147 90 15 
1057 1 3 93 15 
1058 1 9 93 15 
1059 1 15 93 15 
1060 1 18 93 15 
1061 1 21 93 15 
1062 1 27 93 15 
1063 1 30 93 15 
1064 1 33 93 15 
1065 1 39 93 15 
1066 1 42 93 15 
1067 1 45 93 15 
1068 1 48 93 15 
1069 1 51 93 15 
1070 1 57 93 15 
1071 1 60 93 15 
1072 1 63 93 15 
1073 1 69 93 15 
1074 1 72 93 15 
1075 1 75 93 15 
1076 1 78 93 15 
1077 1 87 93 15 
1078 1 90 93 15 
1079 1 93 93 15 
1080 1 99 93 15 
1081 2 102 93 15 
1082 1 105 93 15 
1083 1 108 93 15 
1084 1 111 93 15 
1085 1 114 93 15 
1086 1 120 93 15 
1087 1 123 93 15 
1088 1 126 93 15 
1089 1 129 93 15 
1090 1 132 93 15 
1091 1 141 93 15 
1092 1 9 96 15 
1093 1 12 96 15 
1094 1 15 96 15 
1095 1 18 96 15 
1096 1 24 96 15 
1097 1 30 96 15 
1098 1 33 96 15 
1099 1 45 96 15 
1100 1 51 96 15 
1101 1 54 96 15 
1102 1 60 96 15 
1103 1 72 96 15 
1104 1 75 96 15 
1105 1 78 96 15 
1106 1 81 96 15 
1107 1 84 96 15 
1108 1 87 96 15 
1109 1 90 96 15 
1110 1 93 96 15 
1111 1 96 96 15 
1112 1 99 96 15 
1113 1 102 96 15 
1114 1 108 96 15 
1115 2 114 96 15 
1116 1 120 96 15 
1117 1 126 96 15 
1118 1 129 96 15 
1119 1 132 96 15 
1120 1 138 96 15 
1121 1 144 96 15 
1122 1 0 99 15 
1123 1 6 99 15 
1124 1 9 99 15 
1125 1 12 99 15 
1126 1 15 99 15 
1127 1 30 99 15 
1128 1 33 99 15 
1129 1 36 99 15 
1130 1 45 99 15 
1131 1 48 99 15 
1132 2 51 99 15 
1133 1 54 99 15 
1134 1 63 99 15 
1135 1 66 99 15 
1136 1 69 99 15 
1137 1 72 99 15 
1138 1 75 99 15 
1139 1 93 99 15 
1140 1 96 99 15 
1141 1 99 99 15 
1142 1 102 99 15 
1143 1 105 99 15 
1144 1 108 99 15 
1145 1 117 99 15 
1146 1 120 99 15 
1147 1 126 99 15 
1148 1 129 99 15 
1149 1 138 99 15 
1150 1 0 102 15 
1151 1 9 102 15 
1152 1 12 102 15 
1153 1 18 102 15 
1154 1 21 102 15 
1155 1 30 102 15 
1156 1 33 102 15 
1157 1 36 102 15 
1158 1 39 102 15 
1159 1 54 102 15 
1160 1 57 102 15 
1161 1 63 102 15 
1162 1 69 102 15 
1163 1 72 102 15 
1164 1 75 102 15 
1165 1 78 102 15 
1166 1 81 102 15 
1167 1 84 102 15 
1168 1 87 102 15 
1169 1 90 102 15 
1170 1 93 102 15 
1171 1 96 102 15 
1172 1 99 102 15 
1173 1 102 102 15 
1174 1 105 102 15 
1175 1 111 102 15 
1176 1 120 102 15 
1177 1 123 102 15 
1178 1 126 102 15 
1179 1 132 102 15 
1180 1 138 102 15 
1181 1 141 102 15 
1182 1 9 105 15 
1183 1 15 105 15 
1184 1 18 105 15 
1185 1 30 105 15 
1186 1 33 105 15 
1187 1 36 105 15 
1188 1 45 105 15 
1189 1 51 105 15 
1190 1 54 105 15 
1191 1 57 105 15 
1192 1 60 105 15 
1193 1 63 105 15 
1194 1 66 105 15 
1195 1 72 105 15 
1196 1 75 105 15 
1197 1 78 105 15 
1198 1 96 105 15 
1199 1 111 105 15 
1200 1 117 105 15 
1201 1 123 105 15 
1202 2 126 105 15 
1203 1 129 105 15 
1204 1 132 105 15 
1205 1 135 105 15 
1206 1 138 105 15 
1207 1 0 108 15 
1208 1 3 108 15 
1209 1 9 108 15 
1210 1 18 108 15 
1211 1 21 108 15 
1212 1 27 108 15 
1213 1 30 108 15 
1214 1 33 108 15 
1215 1 36 108 15 
1216 1 54 108 15 
1217 1 57 108 15 
1218 1 63 108 15 
1219 1 66 108 15 
1220 1 69 108 15 
1221 1 72 108 15 
1222 1 75 108 15 
1223 1 81 108 15 
1224 1 84 108 15 
1225 1 90 108 15 
1226 1 96 108 15 
1227 1 99 108 15 
1228 1 114 108 15 
1229 1 117 108 15 
1230 1 126 108 15 
1231 1 129 108 15 
1232 1 132 108 15 
1233 1 135 108 15 
1234 1 141 108 15 
1235 1 144 108 15 
1236 1 3 111 15 
1237 1 9 111 15 
1238 2 15 111 15 
1239 1 27 111 15 
1240 1 36 111 15 
1241 1 39 111 15 
1242 1 42 111 15 
1243 1 48 111 15 
1244 1 57 111 15 
1245 1 60 111 15 
1246 1 66 111 15 
1247 1 69 111 15 
1248 1 72 111 15 
1249 1 78 111 15 
1250 1 81 111 15 
1251 1 90 111 15 
1252 1 96 111 15 
1253 1 99 111 15 
1254 1 105 111 15 
1255 1 108 111 15 
1256 1 111 111 15 
1257 1 117 111 15 
1258 1 120 111 15 
1259 1 123 111 15 
1260 1 129 111 15 
1261 1 132 111 15 
1262 1 135 111 15 
1263 1 141 111 15 
1264 1 147 111 15 
1265 1 9 114 15 
1266 1 12 114 15 
1267 1 15 114 15 
1268 1 24 114 15 
1269 1 27 114 15 
1270 1 30 114 15 
1271 1 33 114 15 
1272 1 36 114 15 
1273 1 39 114 15 
1274 1 42 114 15 
1275 1 45 114 15 
1276 1 48 114 15 
1277 1 54 114 15 
1278 1 75 114 15 
1279 1 78 114 15 
1280 1 87 114 15 
1281 1 90 114 15 
1282 1 93 114 15 
1283 1 96 114 15 
1284 1 102 114 15 
1285 1 105 114 15 
1286 1 108 114 15 
1287 1 111 114 15 
1288 1 120 114 15 
1289 1 123 114 15 
1290 1 129 114 15 
1291 1 132 114 15 
1292 1 135 114 15 
1293 1 138 114 15 
1294 1 144 114 15 
1295 1 3 117 15 
1296 2 6 117 15 
1297 1 18 117 15 
1298 1 24 117 15 
1299 1 30 117 15 
1300 1 33 117 15 
1301 1 36 117 15 
1302 1 39 117 15 
1303 1 45 117 15 
1304 1 51 117 15 
1305 1 54 117 15 
1306 1 57 117 15 
1307 1 60 117 15 
1308 1 66 117 15 
1309 1 75 117 15 
1310 1 78 117 15 
1311 1 81 117 15 
1312 1 84 117 15 
1313 1 87 117 15 
1314 1 90 117 15 
1315 1 93 117 15 
1316 1 96 117 15 
1317 1 99 117 15 
1318 1 102 117 15 
1319 1 105 117 15 
1320 1 108 117 15 
1321 1 114 117 15 
1322 1 117 117 15 
1323 1 120 117 15 
1324 1 123 117 15 
1325 1 126 117 15 
1326 1 129 117 15 
1327 1 141 117 15 
1328 1 147 117 15 
1329 1 0 120 15 
1330 1 3 120 15 
1331 1 6 120 15 
1332 1 9 120 15 
1333 1 12 120 15 
1334 1 15 120 15 
1335 1 18 120 15 
1336 1 21 120 15 
1337 1 24 120 15 
1338 1 36 120 15 
1339 1 39 120 15 
1340 1 42 120 15 
1341 1 45 120 15 
1342 1 51 120 15 
1343 1 54 120 15 
1344 1 57 120 15 
1345 1 60 120 15 
1346 1 63 120 15 
1347 1 66 120 15 
1348 1 69 120 15 
1349 1 72 120 15 
1350 1 75 120 15 
1351 1 84 120 15 
1352 1 90 120 15 
1353 1 102 120 15 
1354 1 120 120 15 
1355 1 123 120 15 
1356 1 126 120 15 
1357 1 129 120 15 
1358 1 132 120 15 
1359 1 138 120 15 
1360 2 141 120 15 
1361 1 144 120 15 
1362 1 3 123 15 
1363 1 6 123 15 
1364 1 9 123 15 
1365 1 15 123 15 
1366 1 18 123 15 
1367 2 21 123 15 
1368 1 27 123 15 
1369 1 30 123 15 
1370 1 33 123 15 
1371 1 36 123 15 
1372 1 39 123 15 
1373 1 45 123 15 
1374 1 54 123 15 
1375 1 57 123 15 
1376 1 60 123 15 
1377 1 63 123 15 
1378 1 69 123 15 
1379 1 72 123 15 
1380 1 78 123 15 
1381 1 81 123 15 
1382 1 87 123 15 
1383 1 90 123 15 
1384 2 93 123 15 
1385 1 96 123 15 
1386 1 108 123 15 
1387 1 114 123 15 
1388 1 123 123 15 
1389 1 126 123 15 
1390 1 129 123 15 
1391 1 138 123 15 
1392 1 144 123 15 
1393 1 0 126 15 
1394 1 3 126 15 
1395 1 9 126 15 
1396 1 12 126 15 
1397 1 15 126 15 
1398 1 21 126 15 
1399 1 24 126 15 
1400 1 30 126 15 
1401 1 36 126 15 
1402 1 39 126 15 
1403 1 45 126 15 
1404 1 51 126 15 
1405 1 57 126 15 
1406 1 60 126 15 
1407 1 63 126 15 
1408 1 66 126 15 
1409 1 69 126 15 
1410 1 72 126 15 
1411 1 78 126 15 
1412 1 81 126 15 
1413 1 87 126 15 
1414 1 93 126 15 
1415 1 96 126 15 
1416 1 99 126 15 
1417 1 102 126 15 
1418 1 105 126 15 
1419 1 108 126 15 
1420 1 111 126 15 
1421 1 120 126 15 
1422 1 123 126 15 
1423 1 126 126 15 
1424 1 129 126 15 
1425 1 132 126 15 
1426 1 135 126 15 
1427 1 3 129 15 
1428 1 6 129 15 
1429 1 12 129 15 
1430 1 15 129 15 
1431 1 21 129 15 
1432 1 24 129 15 
1433 1 30 129 15 
1434 1 36 129 15 
1435 1 39 129 15 
1436 1 54 129 15 
1437 1 57 129 15 
1438 1 60 129 15 
1439 1 63 129 15 
1440 1 66 129 15 
1441 1 69 129 15 
1442 1 93 129 15 
1443 1 96 129 15 
1444 1 99 129 15 
1445 1 102 129 15 
1446 1 105 129 15 
1447 1 108 129 15 
1448 1 114 129 15 
1449 1 117 129 15 
1450 1 123 129 15 
1451 1 129 129 15 
1452 1 132 129 15 
1453 1 135 129 15 
1454 1 138 129 15 
1455 1 141 129 15 
1456 1 144 129 15 
1457 1 147 129 15 
1458 1 0 132 15 
1459 1 3 132 15 
1460 1 21 132 15 
1461 1 30 132 15 
1462 1 36 132 15 
1463 1 39 132 15 
1464 1 42 132 15 
1465 1 45 132 15 
1466 1 48 132 15 
1467 1 63 132 15 
1468 1 69 132 15 
1469 1 78 132 15 
1470 1 81 132 15 
1471 1 87 132 15 
1472 1 93 132 15 
1473 1 96 132 15 
1474 1 99 132 15 
1475 1 102 132 15 
1476 1 105 132 15 
1477 1 114 132 15 
1478 1 117 132 15 
1479 1 120 132 15 
1480 1 123 132 15 
1481 1 132 132 15 
1482 1 135 132 15 
1483 1 144 132 15 
1484 1 147 132 15 
1485 1 12 135 15 
1486 1 15 135 15 
1487 1 21 135 15 
1488 1 24 135 15 
1489 1 30 135 15 
1490 1 36 135 15 
1491 2 39 135 15 
1492 1 42 135 15 
1493 1 48 135 15 
1494 1 51 135 15 
1495 1 54 135 15 
1496 1 63 135 15 
1497 1 75 135 15 
1498 1 81 135 15 
1499 1 84 135 15 
1500 1 90 135 15 
1501 1 93 135 15 
1502 1 96 135 15 
1503 1 102 135 15 
1504 1 105 135 15 
1505 1 108 135 15 
1506 1 111 135 15 
1507 1 117 135 15 
1508 1 129 135 15 
1509 1 132 135 15 
1510 1 135 135 15 
1511 1 138 135 15 
1512 1 141 135 15 
1513 1 144 135 15 
1514 1 3 138 15 
1515 1 6 138 15 
1516 1 9 138 15 
1517 1 18 138 15 
1518 1 21 138 15 
1519 1 24 138 15 
1520 1 27 138 15 
1521 1 30 138 15 
1522 1 36 138 15 
1523 1 39 138 15 
1524 1 45 138 15 
1525 1 51 138 15 
1526 1 57 138 15 
1527 1 63 138 15 
1528 1 66 138 15 
1529 1 78 138 15 
1530 1 81 138 15 
1531 1 87 138 15 
1532 1 90 138 15 
1533 1 96 138 15 
1534 1 105 138 15 
1535 1 108 138 15 
1536 1 114 138 15 
1537 1 117 138 15 
1538 1 123 138 15 
1539 1 129 138 15 
1540 1 132 138 15 
1541 1 135 138 15 
1542 1 141 138 15 
1543 1 144 138 15 
1544 1 147 138 15 
1545 1 0 141 15 
1546 1 6 141 15 
1547 1 9 141 15 
1548 1 12 141 15 
1549 1 18 141 15 
1550 1 21 141 15 
1551 1 36 141 15 
1552 1 39 141 15 
1553 2 48 141 15 
1554 1 54 141 15 
1555 1 60 141 15 
1556 1 63 141 15 
1557 1 66 141 15 
1558 1 72 141 15 
1559 1 75 141 15 
1560 1 78 141 15 
1561 1 84 141 15 
1562 1 90 141 15 
1563 1 96 141 15 
1564 1 99 141 15 
1565 1 102 141 15 
1566 1 105 141 15 
1567 1 111 141 15 
1568 1 120 141 15 
1569 1 123 141 15 
1570 1 126 141 15 
1571 1 129 141 15 
1572 1 141 141 15 
1573 1 144 141 15 
1574 1 0 144 15 
1575 1 3 144 15 
1576 1 9 144 15 
1577 1 12 144 15 
1578 1 24 144 15 
1579 1 30 144 15 
1580 1 36 144 15 
1581 1 42 144 15 
1582 1 45 144 15 
1583 1 51 144 15 
1584 1 54 144 15 
1585 1 60 144 15 
1586 1 63 144 15 
1587 2 66 144 15 
1588 1 69 144 15 
1589 1 75 144 15 
1590 1 78 144 15 
1591 1 81 144 15 
1592 1 90 144 15 
1593 1 96 144 15 
1594 1 102 144 15 
1595 1 111 144 15 
1596 1 117 144 15 
1597 1 126 144 15 
1598 2 135 144 15 
1599 1 138 144 15 
1600 2 144 144 15 
1601 1 147 144 15 
1602 1 6 147 15 
1603 1 9 147 15 
1604 1 12 147 15 
1605 2 15 147 15 
1606 1 21 147 15 
1607 1 24 147 15 
1608 1 27 147 15 
1609 1 33 147 15 
1610 1 36 147 15 
1611 1 45 147 15 
1612 1 48 147 15 
1613 2 57 147 15 
1614 1 69 147 15 
1615 1 72 147 15 
1616 1 78 147 15 
1617 1 84 147 15 
1618 1 87 147 15 
1619 1 90 147 15 
1620 1 93 147 15 
1621 1 96 147 15 
1622 1 105 147 15 
1623 1 108 147 15 
1624 1 111 147 15 
1625 1 114 147 15 
1626 1 117 147 15 
1627 1 120 147 15 
1628 1 126 147 15 
1629 1 129 147 15 
1630 1 132 147 15 
1631 2 138 147 15 
1632 1 141 147 15 
1633 1 12 0 18 
1634 1 42 3 18 
1635 1 147 9 18 
1636 2 0 12 18 
1637 1 0 15 18 
1638 1 93 15 18 
1639 1 6 30 18 
1640 1 147 39 18 
1641 1 129 51 18 
1642 1 30 54 18 
1643 1 141 60 18 
1644 1 144 60 18 
1645 1 42 63 18 
1646 1 147 63 18 
1647 1 69 78 18 
1648 1 12 96 18 
1649 1 9 99 18 
1650 1 72 99 18 
1651 1 33 102 18 
1652 1 72 102 18 
1653 1 60 105 18 
1654 1 75 105 18 
1655 1 30 108 18 
1656 1 33 108 18 
1657 1 63 108 18 
1658 1 99 111 18 
1659 1 6 114 18 
1660 1 33 114 18 
1661 1 96 114 18 
1662 1 99 114 18 
1663 1 102 117 18 
1664 1 57 123 18 
1665 1 60 123 18 
1666 1 9 126 18 
1667 1 27 126 18 
1668 1 30 126 18 
1669 1 33 126 18 
1670 1 57 126 18 
1671 2 12 129 18 
1672 1 33 129 18 
1673 1 102 129 18 
1674 1 33 132 18 
1675 1 24 141 18 
1676 1 24 144 18 
