ITEM: TIMESTEP
47         47
ITEM: NUMBER OF ATOMS
125000
ITEM: BOX BOUNDS
0 150
0 150
0 150
ITEM: ATOMS id type x y z i2
1 3 0 0 0 0 
2 3 3 0 0 0 
3 3 6 0 0 0 
4 3 9 0 0 0 
5 3 12 0 0 0 
6 3 15 0 0 0 
7 3 18 0 0 0 
8 3 21 0 0 0 
9 3 24 0 0 0 
10 3 27 0 0 0 
11 3 30 0 0 0 
12 3 33 0 0 0 
13 3 36 0 0 0 
14 3 39 0 0 0 
15 3 42 0 0 0 
16 3 45 0 0 0 
17 3 48 0 0 0 
18 3 51 0 0 0 
19 3 54 0 0 0 
20 3 57 0 0 0 
21 3 60 0 0 0 
22 3 63 0 0 0 
23 3 66 0 0 0 
24 3 69 0 0 0 
25 3 72 0 0 0 
26 3 75 0 0 0 
27 3 78 0 0 0 
28 3 81 0 0 0 
29 3 84 0 0 0 
30 3 87 0 0 0 
31 3 90 0 0 0 
32 3 93 0 0 0 
33 3 96 0 0 0 
34 3 99 0 0 0 
35 3 102 0 0 0 
36 3 105 0 0 0 
37 3 108 0 0 0 
38 3 111 0 0 0 
39 3 114 0 0 0 
40 3 117 0 0 0 
41 3 120 0 0 0 
42 3 123 0 0 0 
43 3 126 0 0 0 
44 3 129 0 0 0 
45 3 132 0 0 0 
46 3 135 0 0 0 
47 3 138 0 0 0 
48 3 141 0 0 0 
49 3 144 0 0 0 
50 3 147 0 0 0 
51 3 0 3 0 0 
52 3 3 3 0 0 
53 3 6 3 0 0 
54 3 9 3 0 0 
55 3 12 3 0 0 
56 3 15 3 0 0 
57 3 18 3 0 0 
58 3 21 3 0 0 
59 3 24 3 0 0 
60 3 27 3 0 0 
61 3 30 3 0 0 
62 3 33 3 0 0 
63 3 36 3 0 0 
64 3 39 3 0 0 
65 3 42 3 0 0 
66 3 45 3 0 0 
67 3 48 3 0 0 
68 3 51 3 0 0 
69 3 54 3 0 0 
70 3 57 3 0 0 
71 3 60 3 0 0 
72 3 63 3 0 0 
73 3 66 3 0 0 
74 3 69 3 0 0 
75 3 72 3 0 0 
76 3 75 3 0 0 
77 3 78 3 0 0 
78 3 81 3 0 0 
79 3 84 3 0 0 
80 3 87 3 0 0 
81 3 90 3 0 0 
82 3 93 3 0 0 
83 3 96 3 0 0 
84 3 99 3 0 0 
85 3 102 3 0 0 
86 3 105 3 0 0 
87 3 108 3 0 0 
88 3 111 3 0 0 
89 3 114 3 0 0 
90 3 117 3 0 0 
91 3 120 3 0 0 
92 3 123 3 0 0 
93 3 126 3 0 0 
94 3 129 3 0 0 
95 3 132 3 0 0 
96 3 135 3 0 0 
97 3 138 3 0 0 
98 3 141 3 0 0 
99 3 144 3 0 0 
100 3 147 3 0 0 
101 3 0 6 0 0 
102 3 3 6 0 0 
103 3 6 6 0 0 
104 3 9 6 0 0 
105 3 12 6 0 0 
106 3 15 6 0 0 
107 3 18 6 0 0 
108 3 21 6 0 0 
109 3 24 6 0 0 
110 3 27 6 0 0 
111 3 30 6 0 0 
112 3 33 6 0 0 
113 3 36 6 0 0 
114 3 39 6 0 0 
115 3 42 6 0 0 
116 3 45 6 0 0 
117 3 48 6 0 0 
118 3 51 6 0 0 
119 3 54 6 0 0 
120 3 57 6 0 0 
121 3 60 6 0 0 
122 3 63 6 0 0 
123 3 66 6 0 0 
124 3 69 6 0 0 
125 3 72 6 0 0 
126 3 75 6 0 0 
127 3 78 6 0 0 
128 3 81 6 0 0 
129 3 84 6 0 0 
130 3 87 6 0 0 
131 3 90 6 0 0 
132 3 93 6 0 0 
133 3 96 6 0 0 
134 3 99 6 0 0 
135 3 102 6 0 0 
136 3 105 6 0 0 
137 3 108 6 0 0 
138 3 111 6 0 0 
139 3 114 6 0 0 
140 3 117 6 0 0 
141 3 120 6 0 0 
142 3 123 6 0 0 
143 3 126 6 0 0 
144 3 129 6 0 0 
145 3 132 6 0 0 
146 3 135 6 0 0 
147 3 138 6 0 0 
148 3 141 6 0 0 
149 3 144 6 0 0 
150 3 147 6 0 0 
151 3 0 9 0 0 
152 3 3 9 0 0 
153 3 6 9 0 0 
154 3 9 9 0 0 
155 3 12 9 0 0 
156 3 15 9 0 0 
157 3 18 9 0 0 
158 3 21 9 0 0 
159 3 24 9 0 0 
160 3 27 9 0 0 
161 3 30 9 0 0 
162 3 33 9 0 0 
163 3 36 9 0 0 
164 3 39 9 0 0 
165 3 42 9 0 0 
166 3 45 9 0 0 
167 3 48 9 0 0 
168 3 51 9 0 0 
169 3 54 9 0 0 
170 3 57 9 0 0 
171 3 60 9 0 0 
172 3 63 9 0 0 
173 3 66 9 0 0 
174 3 69 9 0 0 
175 3 72 9 0 0 
176 3 75 9 0 0 
177 3 78 9 0 0 
178 3 81 9 0 0 
179 3 84 9 0 0 
180 3 87 9 0 0 
181 3 90 9 0 0 
182 3 93 9 0 0 
183 3 96 9 0 0 
184 3 99 9 0 0 
185 3 102 9 0 0 
186 3 105 9 0 0 
187 3 108 9 0 0 
188 3 111 9 0 0 
189 3 114 9 0 0 
190 3 117 9 0 0 
191 3 120 9 0 0 
192 3 123 9 0 0 
193 3 126 9 0 0 
194 3 129 9 0 0 
195 3 132 9 0 0 
196 3 135 9 0 0 
197 3 138 9 0 0 
198 3 141 9 0 0 
199 3 144 9 0 0 
200 3 147 9 0 0 
201 3 0 12 0 0 
202 3 3 12 0 0 
203 3 6 12 0 0 
204 3 9 12 0 0 
205 3 12 12 0 0 
206 3 15 12 0 0 
207 3 18 12 0 0 
208 3 21 12 0 0 
209 3 24 12 0 0 
210 3 27 12 0 0 
211 3 30 12 0 0 
212 3 33 12 0 0 
213 3 36 12 0 0 
214 3 39 12 0 0 
215 3 42 12 0 0 
216 3 45 12 0 0 
217 3 48 12 0 0 
218 3 51 12 0 0 
219 3 54 12 0 0 
220 3 57 12 0 0 
221 3 60 12 0 0 
222 3 63 12 0 0 
223 3 66 12 0 0 
224 3 69 12 0 0 
225 3 72 12 0 0 
226 3 75 12 0 0 
227 3 78 12 0 0 
228 3 81 12 0 0 
229 3 84 12 0 0 
230 3 87 12 0 0 
231 3 90 12 0 0 
232 3 93 12 0 0 
233 3 96 12 0 0 
234 3 99 12 0 0 
235 3 102 12 0 0 
236 3 105 12 0 0 
237 3 108 12 0 0 
238 3 111 12 0 0 
239 3 114 12 0 0 
240 3 117 12 0 0 
241 3 120 12 0 0 
242 3 123 12 0 0 
243 3 126 12 0 0 
244 3 129 12 0 0 
245 3 132 12 0 0 
246 3 135 12 0 0 
247 3 138 12 0 0 
248 3 141 12 0 0 
249 3 144 12 0 0 
250 3 147 12 0 0 
251 3 0 15 0 0 
252 3 3 15 0 0 
253 3 6 15 0 0 
254 3 9 15 0 0 
255 3 12 15 0 0 
256 3 15 15 0 0 
257 3 18 15 0 0 
258 3 21 15 0 0 
259 3 24 15 0 0 
260 3 27 15 0 0 
261 3 30 15 0 0 
262 3 33 15 0 0 
263 3 36 15 0 0 
264 3 39 15 0 0 
265 3 42 15 0 0 
266 3 45 15 0 0 
267 3 48 15 0 0 
268 3 51 15 0 0 
269 3 54 15 0 0 
270 3 57 15 0 0 
271 3 60 15 0 0 
272 3 63 15 0 0 
273 3 66 15 0 0 
274 3 69 15 0 0 
275 3 72 15 0 0 
276 3 75 15 0 0 
277 3 78 15 0 0 
278 3 81 15 0 0 
279 3 84 15 0 0 
280 3 87 15 0 0 
281 3 90 15 0 0 
282 3 93 15 0 0 
283 3 96 15 0 0 
284 3 99 15 0 0 
285 3 102 15 0 0 
286 3 105 15 0 0 
287 3 108 15 0 0 
288 3 111 15 0 0 
289 3 114 15 0 0 
290 3 117 15 0 0 
291 3 120 15 0 0 
292 3 123 15 0 0 
293 3 126 15 0 0 
294 3 129 15 0 0 
295 3 132 15 0 0 
296 3 135 15 0 0 
297 3 138 15 0 0 
298 3 141 15 0 0 
299 3 144 15 0 0 
300 3 147 15 0 0 
301 3 0 18 0 0 
302 3 3 18 0 0 
303 3 6 18 0 0 
304 3 9 18 0 0 
305 3 12 18 0 0 
306 3 15 18 0 0 
307 3 18 18 0 0 
308 3 21 18 0 0 
309 3 24 18 0 0 
310 3 27 18 0 0 
311 3 30 18 0 0 
312 3 33 18 0 0 
313 3 36 18 0 0 
314 3 39 18 0 0 
315 3 42 18 0 0 
316 3 45 18 0 0 
317 3 48 18 0 0 
318 3 51 18 0 0 
319 3 54 18 0 0 
320 3 57 18 0 0 
321 3 60 18 0 0 
322 3 63 18 0 0 
323 3 66 18 0 0 
324 3 69 18 0 0 
325 3 72 18 0 0 
326 3 75 18 0 0 
327 3 78 18 0 0 
328 3 81 18 0 0 
329 3 84 18 0 0 
330 3 87 18 0 0 
331 3 90 18 0 0 
332 3 93 18 0 0 
333 3 96 18 0 0 
334 3 99 18 0 0 
335 3 102 18 0 0 
336 3 105 18 0 0 
337 3 108 18 0 0 
338 3 111 18 0 0 
339 3 114 18 0 0 
340 3 117 18 0 0 
341 3 120 18 0 0 
342 3 123 18 0 0 
343 3 126 18 0 0 
344 3 129 18 0 0 
345 3 132 18 0 0 
346 3 135 18 0 0 
347 3 138 18 0 0 
348 3 141 18 0 0 
349 3 144 18 0 0 
350 3 147 18 0 0 
351 3 0 21 0 0 
352 3 3 21 0 0 
353 3 6 21 0 0 
354 3 9 21 0 0 
355 3 12 21 0 0 
356 3 15 21 0 0 
357 3 18 21 0 0 
358 3 21 21 0 0 
359 3 24 21 0 0 
360 3 27 21 0 0 
361 3 30 21 0 0 
362 3 33 21 0 0 
363 3 36 21 0 0 
364 3 39 21 0 0 
365 3 42 21 0 0 
366 3 45 21 0 0 
367 3 48 21 0 0 
368 3 51 21 0 0 
369 3 54 21 0 0 
370 3 57 21 0 0 
371 3 60 21 0 0 
372 3 63 21 0 0 
373 3 66 21 0 0 
374 3 69 21 0 0 
375 3 72 21 0 0 
376 3 75 21 0 0 
377 3 78 21 0 0 
378 3 81 21 0 0 
379 3 84 21 0 0 
380 3 87 21 0 0 
381 3 90 21 0 0 
382 3 93 21 0 0 
383 3 96 21 0 0 
384 3 99 21 0 0 
385 3 102 21 0 0 
386 3 105 21 0 0 
387 3 108 21 0 0 
388 3 111 21 0 0 
389 3 114 21 0 0 
390 3 117 21 0 0 
391 3 120 21 0 0 
392 3 123 21 0 0 
393 3 126 21 0 0 
394 3 129 21 0 0 
395 3 132 21 0 0 
396 3 135 21 0 0 
397 3 138 21 0 0 
398 3 141 21 0 0 
399 3 144 21 0 0 
400 3 147 21 0 0 
401 3 0 24 0 0 
402 3 3 24 0 0 
403 3 6 24 0 0 
404 3 9 24 0 0 
405 3 12 24 0 0 
406 3 15 24 0 0 
407 3 18 24 0 0 
408 3 21 24 0 0 
409 3 24 24 0 0 
410 3 27 24 0 0 
411 3 30 24 0 0 
412 3 33 24 0 0 
413 3 36 24 0 0 
414 3 39 24 0 0 
415 3 42 24 0 0 
416 3 45 24 0 0 
417 3 48 24 0 0 
418 3 51 24 0 0 
419 3 54 24 0 0 
420 3 57 24 0 0 
421 3 60 24 0 0 
422 3 63 24 0 0 
423 3 66 24 0 0 
424 3 69 24 0 0 
425 3 72 24 0 0 
426 3 75 24 0 0 
427 3 78 24 0 0 
428 3 81 24 0 0 
429 3 84 24 0 0 
430 3 87 24 0 0 
431 3 90 24 0 0 
432 3 93 24 0 0 
433 3 96 24 0 0 
434 3 99 24 0 0 
435 3 102 24 0 0 
436 3 105 24 0 0 
437 3 108 24 0 0 
438 3 111 24 0 0 
439 3 114 24 0 0 
440 3 117 24 0 0 
441 3 120 24 0 0 
442 3 123 24 0 0 
443 3 126 24 0 0 
444 3 129 24 0 0 
445 3 132 24 0 0 
446 3 135 24 0 0 
447 3 138 24 0 0 
448 3 141 24 0 0 
449 3 144 24 0 0 
450 3 147 24 0 0 
451 3 0 27 0 0 
452 3 3 27 0 0 
453 3 6 27 0 0 
454 3 9 27 0 0 
455 3 12 27 0 0 
456 3 15 27 0 0 
457 3 18 27 0 0 
458 3 21 27 0 0 
459 3 24 27 0 0 
460 3 27 27 0 0 
461 3 30 27 0 0 
462 3 33 27 0 0 
463 3 36 27 0 0 
464 3 39 27 0 0 
465 3 42 27 0 0 
466 3 45 27 0 0 
467 3 48 27 0 0 
468 3 51 27 0 0 
469 3 54 27 0 0 
470 3 57 27 0 0 
471 3 60 27 0 0 
472 3 63 27 0 0 
473 3 66 27 0 0 
474 3 69 27 0 0 
475 3 72 27 0 0 
476 3 75 27 0 0 
477 3 78 27 0 0 
478 3 81 27 0 0 
479 3 84 27 0 0 
480 3 87 27 0 0 
481 3 90 27 0 0 
482 3 93 27 0 0 
483 3 96 27 0 0 
484 3 99 27 0 0 
485 3 102 27 0 0 
486 3 105 27 0 0 
487 3 108 27 0 0 
488 3 111 27 0 0 
489 3 114 27 0 0 
490 3 117 27 0 0 
491 3 120 27 0 0 
492 3 123 27 0 0 
493 3 126 27 0 0 
494 3 129 27 0 0 
495 3 132 27 0 0 
496 3 135 27 0 0 
497 3 138 27 0 0 
498 3 141 27 0 0 
499 3 144 27 0 0 
500 3 147 27 0 0 
501 3 0 30 0 0 
502 3 3 30 0 0 
503 3 6 30 0 0 
504 3 9 30 0 0 
505 3 12 30 0 0 
506 3 15 30 0 0 
507 3 18 30 0 0 
508 3 21 30 0 0 
509 3 24 30 0 0 
510 3 27 30 0 0 
511 3 30 30 0 0 
512 3 33 30 0 0 
513 3 36 30 0 0 
514 3 39 30 0 0 
515 3 42 30 0 0 
516 3 45 30 0 0 
517 3 48 30 0 0 
518 3 51 30 0 0 
519 3 54 30 0 0 
520 3 57 30 0 0 
521 3 60 30 0 0 
522 3 63 30 0 0 
523 3 66 30 0 0 
524 3 69 30 0 0 
525 3 72 30 0 0 
526 3 75 30 0 0 
527 3 78 30 0 0 
528 3 81 30 0 0 
529 3 84 30 0 0 
530 3 87 30 0 0 
531 3 90 30 0 0 
532 3 93 30 0 0 
533 3 96 30 0 0 
534 3 99 30 0 0 
535 3 102 30 0 0 
536 3 105 30 0 0 
537 3 108 30 0 0 
538 3 111 30 0 0 
539 3 114 30 0 0 
540 3 117 30 0 0 
541 3 120 30 0 0 
542 3 123 30 0 0 
543 3 126 30 0 0 
544 3 129 30 0 0 
545 3 132 30 0 0 
546 3 135 30 0 0 
547 3 138 30 0 0 
548 3 141 30 0 0 
549 3 144 30 0 0 
550 3 147 30 0 0 
551 3 0 33 0 0 
552 3 3 33 0 0 
553 3 6 33 0 0 
554 3 9 33 0 0 
555 3 12 33 0 0 
556 3 15 33 0 0 
557 3 18 33 0 0 
558 3 21 33 0 0 
559 3 24 33 0 0 
560 3 27 33 0 0 
561 3 30 33 0 0 
562 3 33 33 0 0 
563 3 36 33 0 0 
564 3 39 33 0 0 
565 3 42 33 0 0 
566 3 45 33 0 0 
567 3 48 33 0 0 
568 3 51 33 0 0 
569 3 54 33 0 0 
570 3 57 33 0 0 
571 3 60 33 0 0 
572 3 63 33 0 0 
573 3 66 33 0 0 
574 3 69 33 0 0 
575 3 72 33 0 0 
576 3 75 33 0 0 
577 3 78 33 0 0 
578 3 81 33 0 0 
579 3 84 33 0 0 
580 3 87 33 0 0 
581 3 90 33 0 0 
582 3 93 33 0 0 
583 3 96 33 0 0 
584 3 99 33 0 0 
585 3 102 33 0 0 
586 3 105 33 0 0 
587 3 108 33 0 0 
588 3 111 33 0 0 
589 3 114 33 0 0 
590 3 117 33 0 0 
591 3 120 33 0 0 
592 3 123 33 0 0 
593 3 126 33 0 0 
594 3 129 33 0 0 
595 3 132 33 0 0 
596 3 135 33 0 0 
597 3 138 33 0 0 
598 3 141 33 0 0 
599 3 144 33 0 0 
600 3 147 33 0 0 
601 3 0 36 0 0 
602 3 3 36 0 0 
603 3 6 36 0 0 
604 3 9 36 0 0 
605 3 12 36 0 0 
606 3 15 36 0 0 
607 3 18 36 0 0 
608 3 21 36 0 0 
609 3 24 36 0 0 
610 3 27 36 0 0 
611 3 30 36 0 0 
612 3 33 36 0 0 
613 3 36 36 0 0 
614 3 39 36 0 0 
615 3 42 36 0 0 
616 3 45 36 0 0 
617 3 48 36 0 0 
618 3 51 36 0 0 
619 3 54 36 0 0 
620 3 57 36 0 0 
621 3 60 36 0 0 
622 3 63 36 0 0 
623 3 66 36 0 0 
624 3 69 36 0 0 
625 3 72 36 0 0 
626 3 75 36 0 0 
627 3 78 36 0 0 
628 3 81 36 0 0 
629 3 84 36 0 0 
630 3 87 36 0 0 
631 3 90 36 0 0 
632 3 93 36 0 0 
633 3 96 36 0 0 
634 3 99 36 0 0 
635 3 102 36 0 0 
636 3 105 36 0 0 
637 3 108 36 0 0 
638 3 111 36 0 0 
639 3 114 36 0 0 
640 3 117 36 0 0 
641 3 120 36 0 0 
642 3 123 36 0 0 
643 3 126 36 0 0 
644 3 129 36 0 0 
645 3 132 36 0 0 
646 3 135 36 0 0 
647 3 138 36 0 0 
648 3 141 36 0 0 
649 3 144 36 0 0 
650 3 147 36 0 0 
651 3 0 39 0 0 
652 3 3 39 0 0 
653 3 6 39 0 0 
654 3 9 39 0 0 
655 3 12 39 0 0 
656 3 15 39 0 0 
657 3 18 39 0 0 
658 3 21 39 0 0 
659 3 24 39 0 0 
660 3 27 39 0 0 
661 3 30 39 0 0 
662 3 33 39 0 0 
663 3 36 39 0 0 
664 3 39 39 0 0 
665 3 42 39 0 0 
666 3 45 39 0 0 
667 3 48 39 0 0 
668 3 51 39 0 0 
669 3 54 39 0 0 
670 3 57 39 0 0 
671 3 60 39 0 0 
672 3 63 39 0 0 
673 3 66 39 0 0 
674 3 69 39 0 0 
675 3 72 39 0 0 
676 3 75 39 0 0 
677 3 78 39 0 0 
678 3 81 39 0 0 
679 3 84 39 0 0 
680 3 87 39 0 0 
681 3 90 39 0 0 
682 3 93 39 0 0 
683 3 96 39 0 0 
684 3 99 39 0 0 
685 3 102 39 0 0 
686 3 105 39 0 0 
687 3 108 39 0 0 
688 3 111 39 0 0 
689 3 114 39 0 0 
690 3 117 39 0 0 
691 3 120 39 0 0 
692 3 123 39 0 0 
693 3 126 39 0 0 
694 3 129 39 0 0 
695 3 132 39 0 0 
696 3 135 39 0 0 
697 3 138 39 0 0 
698 3 141 39 0 0 
699 3 144 39 0 0 
700 3 147 39 0 0 
701 3 0 42 0 0 
702 3 3 42 0 0 
703 3 6 42 0 0 
704 3 9 42 0 0 
705 3 12 42 0 0 
706 3 15 42 0 0 
707 3 18 42 0 0 
708 3 21 42 0 0 
709 3 24 42 0 0 
710 3 27 42 0 0 
711 3 30 42 0 0 
712 3 33 42 0 0 
713 3 36 42 0 0 
714 3 39 42 0 0 
715 3 42 42 0 0 
716 3 45 42 0 0 
717 3 48 42 0 0 
718 3 51 42 0 0 
719 3 54 42 0 0 
720 3 57 42 0 0 
721 3 60 42 0 0 
722 3 63 42 0 0 
723 3 66 42 0 0 
724 3 69 42 0 0 
725 3 72 42 0 0 
726 3 75 42 0 0 
727 3 78 42 0 0 
728 3 81 42 0 0 
729 3 84 42 0 0 
730 3 87 42 0 0 
731 3 90 42 0 0 
732 3 93 42 0 0 
733 3 96 42 0 0 
734 3 99 42 0 0 
735 3 102 42 0 0 
736 3 105 42 0 0 
737 3 108 42 0 0 
738 3 111 42 0 0 
739 3 114 42 0 0 
740 3 117 42 0 0 
741 3 120 42 0 0 
742 3 123 42 0 0 
743 3 126 42 0 0 
744 3 129 42 0 0 
745 3 132 42 0 0 
746 3 135 42 0 0 
747 3 138 42 0 0 
748 3 141 42 0 0 
749 3 144 42 0 0 
750 3 147 42 0 0 
751 3 0 45 0 0 
752 3 3 45 0 0 
753 3 6 45 0 0 
754 3 9 45 0 0 
755 3 12 45 0 0 
756 3 15 45 0 0 
757 3 18 45 0 0 
758 3 21 45 0 0 
759 3 24 45 0 0 
760 3 27 45 0 0 
761 3 30 45 0 0 
762 3 33 45 0 0 
763 3 36 45 0 0 
764 3 39 45 0 0 
765 3 42 45 0 0 
766 3 45 45 0 0 
767 3 48 45 0 0 
768 3 51 45 0 0 
769 3 54 45 0 0 
770 3 57 45 0 0 
771 3 60 45 0 0 
772 3 63 45 0 0 
773 3 66 45 0 0 
774 3 69 45 0 0 
775 3 72 45 0 0 
776 3 75 45 0 0 
777 3 78 45 0 0 
778 3 81 45 0 0 
779 3 84 45 0 0 
780 3 87 45 0 0 
781 3 90 45 0 0 
782 3 93 45 0 0 
783 3 96 45 0 0 
784 3 99 45 0 0 
785 3 102 45 0 0 
786 3 105 45 0 0 
787 3 108 45 0 0 
788 3 111 45 0 0 
789 3 114 45 0 0 
790 3 117 45 0 0 
791 3 120 45 0 0 
792 3 123 45 0 0 
793 3 126 45 0 0 
794 3 129 45 0 0 
795 3 132 45 0 0 
796 3 135 45 0 0 
797 3 138 45 0 0 
798 3 141 45 0 0 
799 3 144 45 0 0 
800 3 147 45 0 0 
801 3 0 48 0 0 
802 3 3 48 0 0 
803 3 6 48 0 0 
804 3 9 48 0 0 
805 3 12 48 0 0 
806 3 15 48 0 0 
807 3 18 48 0 0 
808 3 21 48 0 0 
809 3 24 48 0 0 
810 3 27 48 0 0 
811 3 30 48 0 0 
812 3 33 48 0 0 
813 3 36 48 0 0 
814 3 39 48 0 0 
815 3 42 48 0 0 
816 3 45 48 0 0 
817 3 48 48 0 0 
818 3 51 48 0 0 
819 3 54 48 0 0 
820 3 57 48 0 0 
821 3 60 48 0 0 
822 3 63 48 0 0 
823 3 66 48 0 0 
824 3 69 48 0 0 
825 3 72 48 0 0 
826 3 75 48 0 0 
827 3 78 48 0 0 
828 3 81 48 0 0 
829 3 84 48 0 0 
830 3 87 48 0 0 
831 3 90 48 0 0 
832 3 93 48 0 0 
833 3 96 48 0 0 
834 3 99 48 0 0 
835 3 102 48 0 0 
836 3 105 48 0 0 
837 3 108 48 0 0 
838 3 111 48 0 0 
839 3 114 48 0 0 
840 3 117 48 0 0 
841 3 120 48 0 0 
842 3 123 48 0 0 
843 3 126 48 0 0 
844 3 129 48 0 0 
845 3 132 48 0 0 
846 3 135 48 0 0 
847 3 138 48 0 0 
848 3 141 48 0 0 
849 3 144 48 0 0 
850 3 147 48 0 0 
851 3 0 51 0 0 
852 3 3 51 0 0 
853 3 6 51 0 0 
854 3 9 51 0 0 
855 3 12 51 0 0 
856 3 15 51 0 0 
857 3 18 51 0 0 
858 3 21 51 0 0 
859 3 24 51 0 0 
860 3 27 51 0 0 
861 3 30 51 0 0 
862 3 33 51 0 0 
863 3 36 51 0 0 
864 3 39 51 0 0 
865 3 42 51 0 0 
866 3 45 51 0 0 
867 3 48 51 0 0 
868 3 51 51 0 0 
869 3 54 51 0 0 
870 3 57 51 0 0 
871 3 60 51 0 0 
872 3 63 51 0 0 
873 3 66 51 0 0 
874 3 69 51 0 0 
875 3 72 51 0 0 
876 3 75 51 0 0 
877 3 78 51 0 0 
878 3 81 51 0 0 
879 3 84 51 0 0 
880 3 87 51 0 0 
881 3 90 51 0 0 
882 3 93 51 0 0 
883 3 96 51 0 0 
884 3 99 51 0 0 
885 3 102 51 0 0 
886 3 105 51 0 0 
887 3 108 51 0 0 
888 3 111 51 0 0 
889 3 114 51 0 0 
890 3 117 51 0 0 
891 3 120 51 0 0 
892 3 123 51 0 0 
893 3 126 51 0 0 
894 3 129 51 0 0 
895 3 132 51 0 0 
896 3 135 51 0 0 
897 3 138 51 0 0 
898 3 141 51 0 0 
899 3 144 51 0 0 
900 3 147 51 0 0 
901 3 0 54 0 0 
902 3 3 54 0 0 
903 3 6 54 0 0 
904 3 9 54 0 0 
905 3 12 54 0 0 
906 3 15 54 0 0 
907 3 18 54 0 0 
908 3 21 54 0 0 
909 3 24 54 0 0 
910 3 27 54 0 0 
911 3 30 54 0 0 
912 3 33 54 0 0 
913 3 36 54 0 0 
914 3 39 54 0 0 
915 3 42 54 0 0 
916 3 45 54 0 0 
917 3 48 54 0 0 
918 3 51 54 0 0 
919 3 54 54 0 0 
920 3 57 54 0 0 
921 3 60 54 0 0 
922 3 63 54 0 0 
923 3 66 54 0 0 
924 3 69 54 0 0 
925 3 72 54 0 0 
926 3 75 54 0 0 
927 3 78 54 0 0 
928 3 81 54 0 0 
929 3 84 54 0 0 
930 3 87 54 0 0 
931 3 90 54 0 0 
932 3 93 54 0 0 
933 3 96 54 0 0 
934 3 99 54 0 0 
935 3 102 54 0 0 
936 3 105 54 0 0 
937 3 108 54 0 0 
938 3 111 54 0 0 
939 3 114 54 0 0 
940 3 117 54 0 0 
941 3 120 54 0 0 
942 3 123 54 0 0 
943 3 126 54 0 0 
944 3 129 54 0 0 
945 3 132 54 0 0 
946 3 135 54 0 0 
947 3 138 54 0 0 
948 3 141 54 0 0 
949 3 144 54 0 0 
950 3 147 54 0 0 
951 3 0 57 0 0 
952 3 3 57 0 0 
953 3 6 57 0 0 
954 3 9 57 0 0 
955 3 12 57 0 0 
956 3 15 57 0 0 
957 3 18 57 0 0 
958 3 21 57 0 0 
959 3 24 57 0 0 
960 3 27 57 0 0 
961 3 30 57 0 0 
962 3 33 57 0 0 
963 3 36 57 0 0 
964 3 39 57 0 0 
965 3 42 57 0 0 
966 3 45 57 0 0 
967 3 48 57 0 0 
968 3 51 57 0 0 
969 3 54 57 0 0 
970 3 57 57 0 0 
971 3 60 57 0 0 
972 3 63 57 0 0 
973 3 66 57 0 0 
974 3 69 57 0 0 
975 3 72 57 0 0 
976 3 75 57 0 0 
977 3 78 57 0 0 
978 3 81 57 0 0 
979 3 84 57 0 0 
980 3 87 57 0 0 
981 3 90 57 0 0 
982 3 93 57 0 0 
983 3 96 57 0 0 
984 3 99 57 0 0 
985 3 102 57 0 0 
986 3 105 57 0 0 
987 3 108 57 0 0 
988 3 111 57 0 0 
989 3 114 57 0 0 
990 3 117 57 0 0 
991 3 120 57 0 0 
992 3 123 57 0 0 
993 3 126 57 0 0 
994 3 129 57 0 0 
995 3 132 57 0 0 
996 3 135 57 0 0 
997 3 138 57 0 0 
998 3 141 57 0 0 
999 3 144 57 0 0 
1000 3 147 57 0 0 
1001 3 0 60 0 0 
1002 3 3 60 0 0 
1003 3 6 60 0 0 
1004 3 9 60 0 0 
1005 3 12 60 0 0 
1006 3 15 60 0 0 
1007 3 18 60 0 0 
1008 3 21 60 0 0 
1009 3 24 60 0 0 
1010 3 27 60 0 0 
1011 3 30 60 0 0 
1012 3 33 60 0 0 
1013 3 36 60 0 0 
1014 3 39 60 0 0 
1015 3 42 60 0 0 
1016 3 45 60 0 0 
1017 3 48 60 0 0 
1018 3 51 60 0 0 
1019 3 54 60 0 0 
1020 3 57 60 0 0 
1021 3 60 60 0 0 
1022 3 63 60 0 0 
1023 3 66 60 0 0 
1024 3 69 60 0 0 
1025 3 72 60 0 0 
1026 3 75 60 0 0 
1027 3 78 60 0 0 
1028 3 81 60 0 0 
1029 3 84 60 0 0 
1030 3 87 60 0 0 
1031 3 90 60 0 0 
1032 3 93 60 0 0 
1033 3 96 60 0 0 
1034 3 99 60 0 0 
1035 3 102 60 0 0 
1036 3 105 60 0 0 
1037 3 108 60 0 0 
1038 3 111 60 0 0 
1039 3 114 60 0 0 
1040 3 117 60 0 0 
1041 3 120 60 0 0 
1042 3 123 60 0 0 
1043 3 126 60 0 0 
1044 3 129 60 0 0 
1045 3 132 60 0 0 
1046 3 135 60 0 0 
1047 3 138 60 0 0 
1048 3 141 60 0 0 
1049 3 144 60 0 0 
1050 3 147 60 0 0 
1051 3 0 63 0 0 
1052 3 3 63 0 0 
1053 3 6 63 0 0 
1054 3 9 63 0 0 
1055 3 12 63 0 0 
1056 3 15 63 0 0 
1057 3 18 63 0 0 
1058 3 21 63 0 0 
1059 3 24 63 0 0 
1060 3 27 63 0 0 
1061 3 30 63 0 0 
1062 3 33 63 0 0 
1063 3 36 63 0 0 
1064 3 39 63 0 0 
1065 3 42 63 0 0 
1066 3 45 63 0 0 
1067 3 48 63 0 0 
1068 3 51 63 0 0 
1069 3 54 63 0 0 
1070 3 57 63 0 0 
1071 3 60 63 0 0 
1072 3 63 63 0 0 
1073 3 66 63 0 0 
1074 3 69 63 0 0 
1075 3 72 63 0 0 
1076 3 75 63 0 0 
1077 3 78 63 0 0 
1078 3 81 63 0 0 
1079 3 84 63 0 0 
1080 3 87 63 0 0 
1081 3 90 63 0 0 
1082 3 93 63 0 0 
1083 3 96 63 0 0 
1084 3 99 63 0 0 
1085 3 102 63 0 0 
1086 3 105 63 0 0 
1087 3 108 63 0 0 
1088 3 111 63 0 0 
1089 3 114 63 0 0 
1090 3 117 63 0 0 
1091 3 120 63 0 0 
1092 3 123 63 0 0 
1093 3 126 63 0 0 
1094 3 129 63 0 0 
1095 3 132 63 0 0 
1096 3 135 63 0 0 
1097 3 138 63 0 0 
1098 3 141 63 0 0 
1099 3 144 63 0 0 
1100 3 147 63 0 0 
1101 3 0 66 0 0 
1102 3 3 66 0 0 
1103 3 6 66 0 0 
1104 3 9 66 0 0 
1105 3 12 66 0 0 
1106 3 15 66 0 0 
1107 3 18 66 0 0 
1108 3 21 66 0 0 
1109 3 24 66 0 0 
1110 3 27 66 0 0 
1111 3 30 66 0 0 
1112 3 33 66 0 0 
1113 3 36 66 0 0 
1114 3 39 66 0 0 
1115 3 42 66 0 0 
1116 3 45 66 0 0 
1117 3 48 66 0 0 
1118 3 51 66 0 0 
1119 3 54 66 0 0 
1120 3 57 66 0 0 
1121 3 60 66 0 0 
1122 3 63 66 0 0 
1123 3 66 66 0 0 
1124 3 69 66 0 0 
1125 3 72 66 0 0 
1126 3 75 66 0 0 
1127 3 78 66 0 0 
1128 3 81 66 0 0 
1129 3 84 66 0 0 
1130 3 87 66 0 0 
1131 3 90 66 0 0 
1132 3 93 66 0 0 
1133 3 96 66 0 0 
1134 3 99 66 0 0 
1135 3 102 66 0 0 
1136 3 105 66 0 0 
1137 3 108 66 0 0 
1138 3 111 66 0 0 
1139 3 114 66 0 0 
1140 3 117 66 0 0 
1141 3 120 66 0 0 
1142 3 123 66 0 0 
1143 3 126 66 0 0 
1144 3 129 66 0 0 
1145 3 132 66 0 0 
1146 3 135 66 0 0 
1147 3 138 66 0 0 
1148 3 141 66 0 0 
1149 3 144 66 0 0 
1150 3 147 66 0 0 
1151 3 0 69 0 0 
1152 3 3 69 0 0 
1153 3 6 69 0 0 
1154 3 9 69 0 0 
1155 3 12 69 0 0 
1156 3 15 69 0 0 
1157 3 18 69 0 0 
1158 3 21 69 0 0 
1159 3 24 69 0 0 
1160 3 27 69 0 0 
1161 3 30 69 0 0 
1162 3 33 69 0 0 
1163 3 36 69 0 0 
1164 3 39 69 0 0 
1165 3 42 69 0 0 
1166 3 45 69 0 0 
1167 3 48 69 0 0 
1168 3 51 69 0 0 
1169 3 54 69 0 0 
1170 3 57 69 0 0 
1171 3 60 69 0 0 
1172 3 63 69 0 0 
1173 3 66 69 0 0 
1174 3 69 69 0 0 
1175 3 72 69 0 0 
1176 3 75 69 0 0 
1177 3 78 69 0 0 
1178 3 81 69 0 0 
1179 3 84 69 0 0 
1180 3 87 69 0 0 
1181 3 90 69 0 0 
1182 3 93 69 0 0 
1183 3 96 69 0 0 
1184 3 99 69 0 0 
1185 3 102 69 0 0 
1186 3 105 69 0 0 
1187 3 108 69 0 0 
1188 3 111 69 0 0 
1189 3 114 69 0 0 
1190 3 117 69 0 0 
1191 3 120 69 0 0 
1192 3 123 69 0 0 
1193 3 126 69 0 0 
1194 3 129 69 0 0 
1195 3 132 69 0 0 
1196 3 135 69 0 0 
1197 3 138 69 0 0 
1198 3 141 69 0 0 
1199 3 144 69 0 0 
1200 3 147 69 0 0 
1201 3 0 72 0 0 
1202 3 3 72 0 0 
1203 3 6 72 0 0 
1204 3 9 72 0 0 
1205 3 12 72 0 0 
1206 3 15 72 0 0 
1207 3 18 72 0 0 
1208 3 21 72 0 0 
1209 3 24 72 0 0 
1210 3 27 72 0 0 
1211 3 30 72 0 0 
1212 3 33 72 0 0 
1213 3 36 72 0 0 
1214 3 39 72 0 0 
1215 3 42 72 0 0 
1216 3 45 72 0 0 
1217 3 48 72 0 0 
1218 3 51 72 0 0 
1219 3 54 72 0 0 
1220 3 57 72 0 0 
1221 3 60 72 0 0 
1222 3 63 72 0 0 
1223 3 66 72 0 0 
1224 3 69 72 0 0 
1225 3 72 72 0 0 
1226 3 75 72 0 0 
1227 3 78 72 0 0 
1228 3 81 72 0 0 
1229 3 84 72 0 0 
1230 3 87 72 0 0 
1231 3 90 72 0 0 
1232 3 93 72 0 0 
1233 3 96 72 0 0 
1234 3 99 72 0 0 
1235 3 102 72 0 0 
1236 3 105 72 0 0 
1237 3 108 72 0 0 
1238 3 111 72 0 0 
1239 3 114 72 0 0 
1240 3 117 72 0 0 
1241 3 120 72 0 0 
1242 3 123 72 0 0 
1243 3 126 72 0 0 
1244 3 129 72 0 0 
1245 3 132 72 0 0 
1246 3 135 72 0 0 
1247 3 138 72 0 0 
1248 3 141 72 0 0 
1249 3 144 72 0 0 
1250 3 147 72 0 0 
1251 3 0 75 0 0 
1252 3 3 75 0 0 
1253 3 6 75 0 0 
1254 3 9 75 0 0 
1255 3 12 75 0 0 
1256 3 15 75 0 0 
1257 3 18 75 0 0 
1258 3 21 75 0 0 
1259 3 24 75 0 0 
1260 3 27 75 0 0 
1261 3 30 75 0 0 
1262 3 33 75 0 0 
1263 3 36 75 0 0 
1264 3 39 75 0 0 
1265 3 42 75 0 0 
1266 3 45 75 0 0 
1267 3 48 75 0 0 
1268 3 51 75 0 0 
1269 3 54 75 0 0 
1270 3 57 75 0 0 
1271 3 60 75 0 0 
1272 3 63 75 0 0 
1273 3 66 75 0 0 
1274 3 69 75 0 0 
1275 3 72 75 0 0 
1276 3 75 75 0 0 
1277 3 78 75 0 0 
1278 3 81 75 0 0 
1279 3 84 75 0 0 
1280 3 87 75 0 0 
1281 3 90 75 0 0 
1282 3 93 75 0 0 
1283 3 96 75 0 0 
1284 3 99 75 0 0 
1285 3 102 75 0 0 
1286 3 105 75 0 0 
1287 3 108 75 0 0 
1288 3 111 75 0 0 
1289 3 114 75 0 0 
1290 3 117 75 0 0 
1291 3 120 75 0 0 
1292 3 123 75 0 0 
1293 3 126 75 0 0 
1294 3 129 75 0 0 
1295 3 132 75 0 0 
1296 3 135 75 0 0 
1297 3 138 75 0 0 
1298 3 141 75 0 0 
1299 3 144 75 0 0 
1300 3 147 75 0 0 
1301 3 0 78 0 0 
1302 3 3 78 0 0 
1303 3 6 78 0 0 
1304 3 9 78 0 0 
1305 3 12 78 0 0 
1306 3 15 78 0 0 
1307 3 18 78 0 0 
1308 3 21 78 0 0 
1309 3 24 78 0 0 
1310 3 27 78 0 0 
1311 3 30 78 0 0 
1312 3 33 78 0 0 
1313 3 36 78 0 0 
1314 3 39 78 0 0 
1315 3 42 78 0 0 
1316 3 45 78 0 0 
1317 3 48 78 0 0 
1318 3 51 78 0 0 
1319 3 54 78 0 0 
1320 3 57 78 0 0 
1321 3 60 78 0 0 
1322 3 63 78 0 0 
1323 3 66 78 0 0 
1324 3 69 78 0 0 
1325 3 72 78 0 0 
1326 3 75 78 0 0 
1327 3 78 78 0 0 
1328 3 81 78 0 0 
1329 3 84 78 0 0 
1330 3 87 78 0 0 
1331 3 90 78 0 0 
1332 3 93 78 0 0 
1333 3 96 78 0 0 
1334 3 99 78 0 0 
1335 3 102 78 0 0 
1336 3 105 78 0 0 
1337 3 108 78 0 0 
1338 3 111 78 0 0 
1339 3 114 78 0 0 
1340 3 117 78 0 0 
1341 3 120 78 0 0 
1342 3 123 78 0 0 
1343 3 126 78 0 0 
1344 3 129 78 0 0 
1345 3 132 78 0 0 
1346 3 135 78 0 0 
1347 3 138 78 0 0 
1348 3 141 78 0 0 
1349 3 144 78 0 0 
1350 3 147 78 0 0 
1351 3 0 81 0 0 
1352 3 3 81 0 0 
1353 3 6 81 0 0 
1354 3 9 81 0 0 
1355 3 12 81 0 0 
1356 3 15 81 0 0 
1357 3 18 81 0 0 
1358 3 21 81 0 0 
1359 3 24 81 0 0 
1360 3 27 81 0 0 
1361 3 30 81 0 0 
1362 3 33 81 0 0 
1363 3 36 81 0 0 
1364 3 39 81 0 0 
1365 3 42 81 0 0 
1366 3 45 81 0 0 
1367 3 48 81 0 0 
1368 3 51 81 0 0 
1369 3 54 81 0 0 
1370 3 57 81 0 0 
1371 3 60 81 0 0 
1372 3 63 81 0 0 
1373 3 66 81 0 0 
1374 3 69 81 0 0 
1375 3 72 81 0 0 
1376 3 75 81 0 0 
1377 3 78 81 0 0 
1378 3 81 81 0 0 
1379 3 84 81 0 0 
1380 3 87 81 0 0 
1381 3 90 81 0 0 
1382 3 93 81 0 0 
1383 3 96 81 0 0 
1384 3 99 81 0 0 
1385 3 102 81 0 0 
1386 3 105 81 0 0 
1387 3 108 81 0 0 
1388 3 111 81 0 0 
1389 3 114 81 0 0 
1390 3 117 81 0 0 
1391 3 120 81 0 0 
1392 3 123 81 0 0 
1393 3 126 81 0 0 
1394 3 129 81 0 0 
1395 3 132 81 0 0 
1396 3 135 81 0 0 
1397 3 138 81 0 0 
1398 3 141 81 0 0 
1399 3 144 81 0 0 
1400 3 147 81 0 0 
1401 3 0 84 0 0 
1402 3 3 84 0 0 
1403 3 6 84 0 0 
1404 3 9 84 0 0 
1405 3 12 84 0 0 
1406 3 15 84 0 0 
1407 3 18 84 0 0 
1408 3 21 84 0 0 
1409 3 24 84 0 0 
1410 3 27 84 0 0 
1411 3 30 84 0 0 
1412 3 33 84 0 0 
1413 3 36 84 0 0 
1414 3 39 84 0 0 
1415 3 42 84 0 0 
1416 3 45 84 0 0 
1417 3 48 84 0 0 
1418 3 51 84 0 0 
1419 3 54 84 0 0 
1420 3 57 84 0 0 
1421 3 60 84 0 0 
1422 3 63 84 0 0 
1423 3 66 84 0 0 
1424 3 69 84 0 0 
1425 3 72 84 0 0 
1426 3 75 84 0 0 
1427 3 78 84 0 0 
1428 3 81 84 0 0 
1429 3 84 84 0 0 
1430 3 87 84 0 0 
1431 3 90 84 0 0 
1432 3 93 84 0 0 
1433 3 96 84 0 0 
1434 3 99 84 0 0 
1435 3 102 84 0 0 
1436 3 105 84 0 0 
1437 3 108 84 0 0 
1438 3 111 84 0 0 
1439 3 114 84 0 0 
1440 3 117 84 0 0 
1441 3 120 84 0 0 
1442 3 123 84 0 0 
1443 3 126 84 0 0 
1444 3 129 84 0 0 
1445 3 132 84 0 0 
1446 3 135 84 0 0 
1447 3 138 84 0 0 
1448 3 141 84 0 0 
1449 3 144 84 0 0 
1450 3 147 84 0 0 
1451 3 0 87 0 0 
1452 3 3 87 0 0 
1453 3 6 87 0 0 
1454 3 9 87 0 0 
1455 3 12 87 0 0 
1456 3 15 87 0 0 
1457 3 18 87 0 0 
1458 3 21 87 0 0 
1459 3 24 87 0 0 
1460 3 27 87 0 0 
1461 3 30 87 0 0 
1462 3 33 87 0 0 
1463 3 36 87 0 0 
1464 3 39 87 0 0 
1465 3 42 87 0 0 
1466 3 45 87 0 0 
1467 3 48 87 0 0 
1468 3 51 87 0 0 
1469 3 54 87 0 0 
1470 3 57 87 0 0 
1471 3 60 87 0 0 
1472 3 63 87 0 0 
1473 3 66 87 0 0 
1474 3 69 87 0 0 
1475 3 72 87 0 0 
1476 3 75 87 0 0 
1477 3 78 87 0 0 
1478 3 81 87 0 0 
1479 3 84 87 0 0 
1480 3 87 87 0 0 
1481 3 90 87 0 0 
1482 3 93 87 0 0 
1483 3 96 87 0 0 
1484 3 99 87 0 0 
1485 3 102 87 0 0 
1486 3 105 87 0 0 
1487 3 108 87 0 0 
1488 3 111 87 0 0 
1489 3 114 87 0 0 
1490 3 117 87 0 0 
1491 3 120 87 0 0 
1492 3 123 87 0 0 
1493 3 126 87 0 0 
1494 3 129 87 0 0 
1495 3 132 87 0 0 
1496 3 135 87 0 0 
1497 3 138 87 0 0 
1498 3 141 87 0 0 
1499 3 144 87 0 0 
1500 3 147 87 0 0 
1501 3 0 90 0 0 
1502 3 3 90 0 0 
1503 3 6 90 0 0 
1504 3 9 90 0 0 
1505 3 12 90 0 0 
1506 3 15 90 0 0 
1507 3 18 90 0 0 
1508 3 21 90 0 0 
1509 3 24 90 0 0 
1510 3 27 90 0 0 
1511 3 30 90 0 0 
1512 3 33 90 0 0 
1513 3 36 90 0 0 
1514 3 39 90 0 0 
1515 3 42 90 0 0 
1516 3 45 90 0 0 
1517 3 48 90 0 0 
1518 3 51 90 0 0 
1519 3 54 90 0 0 
1520 3 57 90 0 0 
1521 3 60 90 0 0 
1522 3 63 90 0 0 
1523 3 66 90 0 0 
1524 3 69 90 0 0 
1525 3 72 90 0 0 
1526 3 75 90 0 0 
1527 3 78 90 0 0 
1528 3 81 90 0 0 
1529 3 84 90 0 0 
1530 3 87 90 0 0 
1531 3 90 90 0 0 
1532 3 93 90 0 0 
1533 3 96 90 0 0 
1534 3 99 90 0 0 
1535 3 102 90 0 0 
1536 3 105 90 0 0 
1537 3 108 90 0 0 
1538 3 111 90 0 0 
1539 3 114 90 0 0 
1540 3 117 90 0 0 
1541 3 120 90 0 0 
1542 3 123 90 0 0 
1543 3 126 90 0 0 
1544 3 129 90 0 0 
1545 3 132 90 0 0 
1546 3 135 90 0 0 
1547 3 138 90 0 0 
1548 3 141 90 0 0 
1549 3 144 90 0 0 
1550 3 147 90 0 0 
1551 3 0 93 0 0 
1552 3 3 93 0 0 
1553 3 6 93 0 0 
1554 3 9 93 0 0 
1555 3 12 93 0 0 
1556 3 15 93 0 0 
1557 3 18 93 0 0 
1558 3 21 93 0 0 
1559 3 24 93 0 0 
1560 3 27 93 0 0 
1561 3 30 93 0 0 
1562 3 33 93 0 0 
1563 3 36 93 0 0 
1564 3 39 93 0 0 
1565 3 42 93 0 0 
1566 3 45 93 0 0 
1567 3 48 93 0 0 
1568 3 51 93 0 0 
1569 3 54 93 0 0 
1570 3 57 93 0 0 
1571 3 60 93 0 0 
1572 3 63 93 0 0 
1573 3 66 93 0 0 
1574 3 69 93 0 0 
1575 3 72 93 0 0 
1576 3 75 93 0 0 
1577 3 78 93 0 0 
1578 3 81 93 0 0 
1579 3 84 93 0 0 
1580 3 87 93 0 0 
1581 3 90 93 0 0 
1582 3 93 93 0 0 
1583 3 96 93 0 0 
1584 3 99 93 0 0 
1585 3 102 93 0 0 
1586 3 105 93 0 0 
1587 3 108 93 0 0 
1588 3 111 93 0 0 
1589 3 114 93 0 0 
1590 3 117 93 0 0 
1591 3 120 93 0 0 
1592 3 123 93 0 0 
1593 3 126 93 0 0 
1594 3 129 93 0 0 
1595 3 132 93 0 0 
1596 3 135 93 0 0 
1597 3 138 93 0 0 
1598 3 141 93 0 0 
1599 3 144 93 0 0 
1600 3 147 93 0 0 
1601 3 0 96 0 0 
1602 3 3 96 0 0 
1603 3 6 96 0 0 
1604 3 9 96 0 0 
1605 3 12 96 0 0 
1606 3 15 96 0 0 
1607 3 18 96 0 0 
1608 3 21 96 0 0 
1609 3 24 96 0 0 
1610 3 27 96 0 0 
1611 3 30 96 0 0 
1612 3 33 96 0 0 
1613 3 36 96 0 0 
1614 3 39 96 0 0 
1615 3 42 96 0 0 
1616 3 45 96 0 0 
1617 3 48 96 0 0 
1618 3 51 96 0 0 
1619 3 54 96 0 0 
1620 3 57 96 0 0 
1621 3 60 96 0 0 
1622 3 63 96 0 0 
1623 3 66 96 0 0 
1624 3 69 96 0 0 
1625 3 72 96 0 0 
1626 3 75 96 0 0 
1627 3 78 96 0 0 
1628 3 81 96 0 0 
1629 3 84 96 0 0 
1630 3 87 96 0 0 
1631 3 90 96 0 0 
1632 3 93 96 0 0 
1633 3 96 96 0 0 
1634 3 99 96 0 0 
1635 3 102 96 0 0 
1636 3 105 96 0 0 
1637 3 108 96 0 0 
1638 3 111 96 0 0 
1639 3 114 96 0 0 
1640 3 117 96 0 0 
1641 3 120 96 0 0 
1642 3 123 96 0 0 
1643 3 126 96 0 0 
1644 3 129 96 0 0 
1645 3 132 96 0 0 
1646 3 135 96 0 0 
1647 3 138 96 0 0 
1648 3 141 96 0 0 
1649 3 144 96 0 0 
1650 3 147 96 0 0 
1651 3 0 99 0 0 
1652 3 3 99 0 0 
1653 3 6 99 0 0 
1654 3 9 99 0 0 
1655 3 12 99 0 0 
1656 3 15 99 0 0 
1657 3 18 99 0 0 
1658 3 21 99 0 0 
1659 3 24 99 0 0 
1660 3 27 99 0 0 
1661 3 30 99 0 0 
1662 3 33 99 0 0 
1663 3 36 99 0 0 
1664 3 39 99 0 0 
1665 3 42 99 0 0 
1666 3 45 99 0 0 
1667 3 48 99 0 0 
1668 3 51 99 0 0 
1669 3 54 99 0 0 
1670 3 57 99 0 0 
1671 3 60 99 0 0 
1672 3 63 99 0 0 
1673 3 66 99 0 0 
1674 3 69 99 0 0 
1675 3 72 99 0 0 
1676 3 75 99 0 0 
1677 3 78 99 0 0 
1678 3 81 99 0 0 
1679 3 84 99 0 0 
1680 3 87 99 0 0 
1681 3 90 99 0 0 
1682 3 93 99 0 0 
1683 3 96 99 0 0 
1684 3 99 99 0 0 
1685 3 102 99 0 0 
1686 3 105 99 0 0 
1687 3 108 99 0 0 
1688 3 111 99 0 0 
1689 3 114 99 0 0 
1690 3 117 99 0 0 
1691 3 120 99 0 0 
1692 3 123 99 0 0 
1693 3 126 99 0 0 
1694 3 129 99 0 0 
1695 3 132 99 0 0 
1696 3 135 99 0 0 
1697 3 138 99 0 0 
1698 3 141 99 0 0 
1699 3 144 99 0 0 
1700 3 147 99 0 0 
1701 3 0 102 0 0 
1702 3 3 102 0 0 
1703 3 6 102 0 0 
1704 3 9 102 0 0 
1705 3 12 102 0 0 
1706 3 15 102 0 0 
1707 3 18 102 0 0 
1708 3 21 102 0 0 
1709 3 24 102 0 0 